LAMMPS data file generated by Python Script, timestep = 0

392 atoms
1 atom types

0 13.472193585307469 xlo xhi
0 23.334523779156058 ylo yhi
0 21.999999999999993 zlo zhi

Masses

1 15.9994

Atoms # full

	1	1	1	-1.1128	1.12268	1.29636	1.375
	2	1	1	-1.1128	3.36805	2.59272	2.29167
	3	1	1	-1.1128	1.12268	1.29636	5.95833
	4	1	1	-1.1128	3.36805	2.59272	5.04167
	5	1	1	-1.1128	3.36805	5.18545	1.375
	6	1	1	-1.1128	1.12268	6.48181	2.29167
	7	1	1	-1.1128	3.36805	5.18545	5.95833
	8	1	1	-1.1128	1.12268	6.48181	5.04167
	9	1	1	-1.1128	5.61341	1.29636	1.375
	10	1	1	-1.1128	7.85878	2.59272	2.29167
	11	1	1	-1.1128	5.61341	1.29636	5.95833
	12	1	1	-1.1128	7.85878	2.59272	5.04167
	13	1	1	-1.1128	7.85878	5.18545	1.375
	14	1	1	-1.1128	5.61341	6.48181	2.29167
	15	1	1	-1.1128	7.85878	5.18545	5.95833
	16	1	1	-1.1128	5.61341	6.48181	5.04167
	17	1	1	-1.1128	10.10415	1.29636	1.375
	18	1	1	-1.1128	12.34951	2.59272	2.29167
	19	1	1	-1.1128	10.10415	1.29636	5.95833
	20	1	1	-1.1128	12.34951	2.59272	5.04167
	21	1	1	-1.1128	12.34951	5.18545	1.375
	22	1	1	-1.1128	10.10415	6.48181	2.29167
	23	1	1	-1.1128	12.34951	5.18545	5.95833
	24	1	1	-1.1128	10.10415	6.48181	5.04167
	25	1	1	-1.1128	1.12268	9.07454	1.375
	26	1	1	-1.1128	3.36805	10.3709	2.29167
	27	1	1	-1.1128	1.12268	9.07454	5.95833
	28	1	1	-1.1128	3.36805	10.3709	5.04167
	29	1	1	-1.1128	3.36805	12.96362	1.375
	30	1	1	-1.1128	1.12268	14.25999	2.29167
	31	1	1	-1.1128	3.36805	12.96362	5.95833
	32	1	1	-1.1128	1.12268	14.25999	5.04167
	33	1	1	-1.1128	5.61341	9.07454	1.375
	34	1	1	-1.1128	7.85878	10.3709	2.29167
	35	1	1	-1.1128	5.61341	9.07454	5.95833
	36	1	1	-1.1128	7.85878	10.3709	5.04167
	37	1	1	-1.1128	7.85878	12.96362	1.375
	38	1	1	-1.1128	5.61341	14.25999	2.29167
	39	1	1	-1.1128	7.85878	12.96362	5.95833
	40	1	1	-1.1128	5.61341	14.25999	5.04167
	41	1	1	-1.1128	10.10415	9.07454	1.375
	42	1	1	-1.1128	12.34951	10.3709	2.29167
	43	1	1	-1.1128	10.10415	9.07454	5.95833
	44	1	1	-1.1128	12.34951	10.3709	5.04167
	45	1	1	-1.1128	12.34951	12.96362	1.375
	46	1	1	-1.1128	10.10415	14.25999	2.29167
	47	1	1	-1.1128	12.34951	12.96362	5.95833
	48	1	1	-1.1128	10.10415	14.25999	5.04167
	49	1	1	-1.1128	1.12268	16.85271	1.375
	50	1	1	-1.1128	3.36805	18.14907	2.29167
	51	1	1	-1.1128	1.12268	16.85271	5.95833
	52	1	1	-1.1128	3.36805	18.14907	5.04167
	53	1	1	-1.1128	3.36805	20.7418	1.375
	54	1	1	-1.1128	1.12268	22.03816	2.29167
	55	1	1	-1.1128	3.36805	20.7418	5.95833
	56	1	1	-1.1128	1.12268	22.03816	5.04167
	57	1	1	-1.1128	5.61341	16.85271	1.375
	58	1	1	-1.1128	7.85878	18.14907	2.29167
	59	1	1	-1.1128	5.61341	16.85271	5.95833
	60	1	1	-1.1128	7.85878	18.14907	5.04167
	61	1	1	-1.1128	7.85878	20.7418	1.375
	62	1	1	-1.1128	5.61341	22.03816	2.29167
	63	1	1	-1.1128	7.85878	20.7418	5.95833
	64	1	1	-1.1128	5.61341	22.03816	5.04167
	65	1	1	-1.1128	10.10415	16.85271	1.375
	66	1	1	-1.1128	12.34951	18.14907	2.29167
	67	1	1	-1.1128	10.10415	16.85271	5.95833
	68	1	1	-1.1128	12.34951	18.14907	5.04167
	69	1	1	-1.1128	12.34951	20.7418	1.375
	70	1	1	-1.1128	10.10415	22.03816	2.29167
	71	1	1	-1.1128	12.34951	20.7418	5.95833
	72	1	1	-1.1128	10.10415	22.03816	5.04167
	73	1	1	-1.1128	1.12268	1.29636	8.70833
	74	1	1	-1.1128	3.36805	2.59272	9.625
	75	1	1	-1.1128	1.12268	1.29636	13.29167
	76	1	1	-1.1128	3.36805	2.59272	12.375
	77	1	1	-1.1128	3.36805	5.18545	8.70833
	78	1	1	-1.1128	1.12268	6.48181	9.625
	79	1	1	-1.1128	3.36805	5.18545	13.29167
	80	1	1	-1.1128	1.12268	6.48181	12.375
	81	1	1	-1.1128	5.61341	1.29636	8.70833
	82	1	1	-1.1128	7.85878	2.59272	9.625
	83	1	1	-1.1128	5.61341	1.29636	13.29167
	84	1	1	-1.1128	7.85878	2.59272	12.375
	85	1	1	-1.1128	7.85878	5.18545	8.70833
	86	1	1	-1.1128	5.61341	6.48181	9.625
	87	1	1	-1.1128	7.85878	5.18545	13.29167
	88	1	1	-1.1128	5.61341	6.48181	12.375
	89	1	1	-1.1128	10.10415	1.29636	8.70833
	90	1	1	-1.1128	12.34951	2.59272	9.625
	91	1	1	-1.1128	10.10415	1.29636	13.29167
	92	1	1	-1.1128	12.34951	2.59272	12.375
	93	1	1	-1.1128	12.34951	5.18545	8.70833
	94	1	1	-1.1128	10.10415	6.48181	9.625
	95	1	1	-1.1128	12.34951	5.18545	13.29167
	96	1	1	-1.1128	10.10415	6.48181	12.375
	97	1	1	-1.1128	1.12268	9.07454	8.70833
	98	1	1	-1.1128	3.36805	10.3709	9.625
	99	1	1	-1.1128	1.12268	9.07454	13.29167
	100	1	1	-1.1128	3.36805	10.3709	12.375
	101	1	1	-1.1128	3.36805	12.96362	8.70833
	102	1	1	-1.1128	1.12268	14.25999	9.625
	103	1	1	-1.1128	3.36805	12.96362	13.29167
	104	1	1	-1.1128	1.12268	14.25999	12.375
	105	1	1	-1.1128	5.61341	9.07454	8.70833
	106	1	1	-1.1128	7.85878	10.3709	9.625
	107	1	1	-1.1128	5.61341	9.07454	13.29167
	108	1	1	-1.1128	7.85878	10.3709	12.375
	109	1	1	-1.1128	7.85878	12.96362	8.70833
	110	1	1	-1.1128	5.61341	14.25999	9.625
	111	1	1	-1.1128	7.85878	12.96362	13.29167
	112	1	1	-1.1128	5.61341	14.25999	12.375
	113	1	1	-1.1128	10.10415	9.07454	8.70833
	114	1	1	-1.1128	12.34951	10.3709	9.625
	115	1	1	-1.1128	10.10415	9.07454	13.29167
	116	1	1	-1.1128	12.34951	10.3709	12.375
	117	1	1	-1.1128	12.34951	12.96362	8.70833
	118	1	1	-1.1128	10.10415	14.25999	9.625
	119	1	1	-1.1128	12.34951	12.96362	13.29167
	120	1	1	-1.1128	10.10415	14.25999	12.375
	121	1	1	-1.1128	1.12268	16.85271	8.70833
	122	1	1	-1.1128	3.36805	18.14907	9.625
	123	1	1	-1.1128	1.12268	16.85271	13.29167
	124	1	1	-1.1128	3.36805	18.14907	12.375
	125	1	1	-1.1128	3.36805	20.7418	8.70833
	126	1	1	-1.1128	1.12268	22.03816	9.625
	127	1	1	-1.1128	3.36805	20.7418	13.29167
	128	1	1	-1.1128	1.12268	22.03816	12.375
	129	1	1	-1.1128	5.61341	16.85271	8.70833
	130	1	1	-1.1128	7.85878	18.14907	9.625
	131	1	1	-1.1128	5.61341	16.85271	13.29167
	132	1	1	-1.1128	7.85878	18.14907	12.375
	133	1	1	-1.1128	7.85878	20.7418	8.70833
	134	1	1	-1.1128	5.61341	22.03816	9.625
	135	1	1	-1.1128	7.85878	20.7418	13.29167
	136	1	1	-1.1128	5.61341	22.03816	12.375
	137	1	1	-1.1128	10.10415	16.85271	8.70833
	138	1	1	-1.1128	12.34951	18.14907	9.625
	139	1	1	-1.1128	10.10415	16.85271	13.29167
	140	1	1	-1.1128	12.34951	18.14907	12.375
	141	1	1	-1.1128	12.34951	20.7418	8.70833
	142	1	1	-1.1128	10.10415	22.03816	9.625
	143	1	1	-1.1128	12.34951	20.7418	13.29167
	144	1	1	-1.1128	10.10415	22.03816	12.375
	145	1	1	-1.1128	1.12268	1.29636	16.04167
	146	1	1	-1.1128	3.36805	2.59272	16.95833
	147	1	1	-1.1128	1.12268	1.29636	20.625
	148	1	1	-1.1128	3.36805	2.59272	19.70833
	149	1	1	-1.1128	3.36805	5.18545	16.04167
	150	1	1	-1.1128	1.12268	6.48181	16.95833
	151	1	1	-1.1128	3.36805	5.18545	20.625
	152	1	1	-1.1128	1.12268	6.48181	19.70833
	153	1	1	-1.1128	5.61341	1.29636	16.04167
	154	1	1	-1.1128	7.85878	2.59272	16.95833
	155	1	1	-1.1128	5.61341	1.29636	20.625
	156	1	1	-1.1128	7.85878	2.59272	19.70833
	157	1	1	-1.1128	7.85878	5.18545	16.04167
	158	1	1	-1.1128	5.61341	6.48181	16.95833
	159	1	1	-1.1128	7.85878	5.18545	20.625
	160	1	1	-1.1128	5.61341	6.48181	19.70833
	161	1	1	-1.1128	10.10415	1.29636	16.04167
	162	1	1	-1.1128	12.34951	2.59272	16.95833
	163	1	1	-1.1128	10.10415	1.29636	20.625
	164	1	1	-1.1128	12.34951	2.59272	19.70833
	165	1	1	-1.1128	12.34951	5.18545	16.04167
	166	1	1	-1.1128	10.10415	6.48181	16.95833
	167	1	1	-1.1128	12.34951	5.18545	20.625
	168	1	1	-1.1128	10.10415	6.48181	19.70833
	169	1	1	-1.1128	1.12268	9.07454	16.04167
	170	1	1	-1.1128	3.36805	10.3709	16.95833
	171	1	1	-1.1128	1.12268	9.07454	20.625
	172	1	1	-1.1128	3.36805	10.3709	19.70833
	173	1	1	-1.1128	3.36805	12.96362	16.04167
	174	1	1	-1.1128	1.12268	14.25999	16.95833
	175	1	1	-1.1128	3.36805	12.96362	20.625
	176	1	1	-1.1128	1.12268	14.25999	19.70833
	177	1	1	-1.1128	5.61341	9.07454	16.04167
	178	1	1	-1.1128	7.85878	10.3709	16.95833
	179	1	1	-1.1128	5.61341	9.07454	20.625
	180	1	1	-1.1128	7.85878	10.3709	19.70833
	181	1	1	-1.1128	7.85878	12.96362	16.04167
	182	1	1	-1.1128	5.61341	14.25999	16.95833
	183	1	1	-1.1128	7.85878	12.96362	20.625
	184	1	1	-1.1128	5.61341	14.25999	19.70833
	185	1	1	-1.1128	10.10415	9.07454	16.04167
	186	1	1	-1.1128	12.34951	10.3709	16.95833
	187	1	1	-1.1128	10.10415	9.07454	20.625
	188	1	1	-1.1128	12.34951	10.3709	19.70833
	189	1	1	-1.1128	12.34951	12.96362	16.04167
	190	1	1	-1.1128	10.10415	14.25999	16.95833
	191	1	1	-1.1128	12.34951	12.96362	20.625
	192	1	1	-1.1128	10.10415	14.25999	19.70833
	193	1	1	-1.1128	1.12268	16.85271	16.04167
	194	1	1	-1.1128	3.36805	18.14907	16.95833
	195	1	1	-1.1128	1.12268	16.85271	20.625
	196	1	1	-1.1128	3.36805	18.14907	19.70833
	197	1	1	-1.1128	3.36805	20.7418	16.04167
	198	1	1	-1.1128	1.12268	22.03816	16.95833
	199	1	1	-1.1128	3.36805	20.7418	20.625
	200	1	1	-1.1128	1.12268	22.03816	19.70833
	201	1	1	-1.1128	5.61341	16.85271	16.04167
	202	1	1	-1.1128	7.85878	18.14907	16.95833
	203	1	1	-1.1128	5.61341	16.85271	20.625
	204	1	1	-1.1128	7.85878	18.14907	19.70833
	205	1	1	-1.1128	7.85878	20.7418	16.04167
	206	1	1	-1.1128	5.61341	22.03816	16.95833
	207	1	1	-1.1128	7.85878	20.7418	20.625
	208	1	1	-1.1128	5.61341	22.03816	19.70833
	209	1	1	-1.1128	10.10415	16.85271	16.04167
	210	1	1	-1.1128	12.34951	18.14907	16.95833
	211	1	1	-1.1128	10.10415	16.85271	20.625
	212	1	1	-1.1128	12.34951	18.14907	19.70833
	213	1	1	-1.1128	12.34951	20.7418	16.04167
	214	1	1	-1.1128	10.10415	22.03816	16.95833
	215	1	1	-1.1128	12.34951	20.7418	20.625
	216	1	1	-1.1128	10.10415	22.03816	19.70833
	217	1	1	-1.1128	14.594873585307468	1.29636	1.375
	218	1	1	-1.1128	1.12268	24.630883779156058	1.375
	219	1	1	-1.1128	1.12268	1.29636	23.374999999999993
	220	1	1	-1.1128	14.594873585307468	24.630883779156058	1.375
	221	1	1	-1.1128	1.12268	24.630883779156058	23.374999999999993
	222	1	1	-1.1128	14.594873585307468	1.29636	23.374999999999993
	223	1	1	-1.1128	14.594873585307468	24.630883779156058	23.374999999999993
	224	1	1	-1.1128	14.594873585307468	1.29636	5.95833
	225	1	1	-1.1128	1.12268	24.630883779156058	5.95833
	226	1	1	-1.1128	14.594873585307468	24.630883779156058	5.95833
	227	1	1	-1.1128	3.36805	5.18545	23.374999999999993
	228	1	1	-1.1128	14.594873585307468	6.48181	2.29167
	229	1	1	-1.1128	14.594873585307468	6.48181	5.04167
	230	1	1	-1.1128	5.61341	24.630883779156058	1.375
	231	1	1	-1.1128	5.61341	1.29636	23.374999999999993
	232	1	1	-1.1128	5.61341	24.630883779156058	23.374999999999993
	233	1	1	-1.1128	5.61341	24.630883779156058	5.95833
	234	1	1	-1.1128	7.85878	5.18545	23.374999999999993
	235	1	1	-1.1128	10.10415	24.630883779156058	1.375
	236	1	1	-1.1128	10.10415	1.29636	23.374999999999993
	237	1	1	-1.1128	10.10415	24.630883779156058	23.374999999999993
	238	1	1	-1.1128	-1.1226835853074686	2.59272	2.29167
	239	1	1	-1.1128	10.10415	24.630883779156058	5.95833
	240	1	1	-1.1128	-1.1226835853074686	2.59272	5.04167
	241	1	1	-1.1128	-1.1226835853074686	5.18545	1.375
	242	1	1	-1.1128	12.34951	5.18545	23.374999999999993
	243	1	1	-1.1128	-1.1226835853074686	5.18545	23.374999999999993
	244	1	1	-1.1128	-1.1226835853074686	5.18545	5.95833
	245	1	1	-1.1128	14.594873585307468	9.07454	1.375
	246	1	1	-1.1128	1.12268	9.07454	23.374999999999993
	247	1	1	-1.1128	14.594873585307468	9.07454	23.374999999999993
	248	1	1	-1.1128	14.594873585307468	9.07454	5.95833
	249	1	1	-1.1128	3.36805	12.96362	23.374999999999993
	250	1	1	-1.1128	14.594873585307468	14.25999	2.29167
	251	1	1	-1.1128	14.594873585307468	14.25999	5.04167
	252	1	1	-1.1128	5.61341	9.07454	23.374999999999993
	253	1	1	-1.1128	7.85878	12.96362	23.374999999999993
	254	1	1	-1.1128	10.10415	9.07454	23.374999999999993
	255	1	1	-1.1128	-1.1226835853074686	10.3709	2.29167
	256	1	1	-1.1128	-1.1226835853074686	10.3709	5.04167
	257	1	1	-1.1128	-1.1226835853074686	12.96362	1.375
	258	1	1	-1.1128	12.34951	12.96362	23.374999999999993
	259	1	1	-1.1128	-1.1226835853074686	12.96362	23.374999999999993
	260	1	1	-1.1128	-1.1226835853074686	12.96362	5.95833
	261	1	1	-1.1128	14.594873585307468	16.85271	1.375
	262	1	1	-1.1128	1.12268	16.85271	23.374999999999993
	263	1	1	-1.1128	14.594873585307468	16.85271	23.374999999999993
	264	1	1	-1.1128	14.594873585307468	16.85271	5.95833
	265	1	1	-1.1128	3.36805	20.7418	23.374999999999993
	266	1	1	-1.1128	14.594873585307468	22.03816	2.29167
	267	1	1	-1.1128	1.12268	-1.2963637791560565	2.29167
	268	1	1	-1.1128	14.594873585307468	-1.2963637791560565	2.29167
	269	1	1	-1.1128	14.594873585307468	22.03816	5.04167
	270	1	1	-1.1128	1.12268	-1.2963637791560565	5.04167
	271	1	1	-1.1128	14.594873585307468	-1.2963637791560565	5.04167
	272	1	1	-1.1128	5.61341	16.85271	23.374999999999993
	273	1	1	-1.1128	7.85878	20.7418	23.374999999999993
	274	1	1	-1.1128	5.61341	-1.2963637791560565	2.29167
	275	1	1	-1.1128	5.61341	-1.2963637791560565	5.04167
	276	1	1	-1.1128	10.10415	16.85271	23.374999999999993
	277	1	1	-1.1128	-1.1226835853074686	18.14907	2.29167
	278	1	1	-1.1128	-1.1226835853074686	18.14907	5.04167
	279	1	1	-1.1128	-1.1226835853074686	20.7418	1.375
	280	1	1	-1.1128	12.34951	20.7418	23.374999999999993
	281	1	1	-1.1128	-1.1226835853074686	20.7418	23.374999999999993
	282	1	1	-1.1128	10.10415	-1.2963637791560565	2.29167
	283	1	1	-1.1128	-1.1226835853074686	20.7418	5.95833
	284	1	1	-1.1128	10.10415	-1.2963637791560565	5.04167
	285	1	1	-1.1128	14.594873585307468	1.29636	8.70833
	286	1	1	-1.1128	1.12268	24.630883779156058	8.70833
	287	1	1	-1.1128	14.594873585307468	24.630883779156058	8.70833
	288	1	1	-1.1128	14.594873585307468	1.29636	13.29167
	289	1	1	-1.1128	1.12268	24.630883779156058	13.29167
	290	1	1	-1.1128	14.594873585307468	24.630883779156058	13.29167
	291	1	1	-1.1128	14.594873585307468	6.48181	9.625
	292	1	1	-1.1128	14.594873585307468	6.48181	12.375
	293	1	1	-1.1128	5.61341	24.630883779156058	8.70833
	294	1	1	-1.1128	5.61341	24.630883779156058	13.29167
	295	1	1	-1.1128	10.10415	24.630883779156058	8.70833
	296	1	1	-1.1128	-1.1226835853074686	2.59272	9.625
	297	1	1	-1.1128	10.10415	24.630883779156058	13.29167
	298	1	1	-1.1128	-1.1226835853074686	2.59272	12.375
	299	1	1	-1.1128	-1.1226835853074686	5.18545	8.70833
	300	1	1	-1.1128	-1.1226835853074686	5.18545	13.29167
	301	1	1	-1.1128	14.594873585307468	9.07454	8.70833
	302	1	1	-1.1128	14.594873585307468	9.07454	13.29167
	303	1	1	-1.1128	14.594873585307468	14.25999	9.625
	304	1	1	-1.1128	14.594873585307468	14.25999	12.375
	305	1	1	-1.1128	-1.1226835853074686	10.3709	9.625
	306	1	1	-1.1128	-1.1226835853074686	10.3709	12.375
	307	1	1	-1.1128	-1.1226835853074686	12.96362	8.70833
	308	1	1	-1.1128	-1.1226835853074686	12.96362	13.29167
	309	1	1	-1.1128	14.594873585307468	16.85271	8.70833
	310	1	1	-1.1128	14.594873585307468	16.85271	13.29167
	311	1	1	-1.1128	14.594873585307468	22.03816	9.625
	312	1	1	-1.1128	1.12268	-1.2963637791560565	9.625
	313	1	1	-1.1128	14.594873585307468	-1.2963637791560565	9.625
	314	1	1	-1.1128	14.594873585307468	22.03816	12.375
	315	1	1	-1.1128	1.12268	-1.2963637791560565	12.375
	316	1	1	-1.1128	14.594873585307468	-1.2963637791560565	12.375
	317	1	1	-1.1128	5.61341	-1.2963637791560565	9.625
	318	1	1	-1.1128	5.61341	-1.2963637791560565	12.375
	319	1	1	-1.1128	-1.1226835853074686	18.14907	9.625
	320	1	1	-1.1128	-1.1226835853074686	18.14907	12.375
	321	1	1	-1.1128	-1.1226835853074686	20.7418	8.70833
	322	1	1	-1.1128	10.10415	-1.2963637791560565	9.625
	323	1	1	-1.1128	-1.1226835853074686	20.7418	13.29167
	324	1	1	-1.1128	10.10415	-1.2963637791560565	12.375
	325	1	1	-1.1128	14.594873585307468	1.29636	16.04167
	326	1	1	-1.1128	1.12268	24.630883779156058	16.04167
	327	1	1	-1.1128	14.594873585307468	24.630883779156058	16.04167
	328	1	1	-1.1128	14.594873585307468	1.29636	20.625
	329	1	1	-1.1128	1.12268	24.630883779156058	20.625
	330	1	1	-1.1128	1.12268	1.29636	-1.374999999999993
	331	1	1	-1.1128	14.594873585307468	24.630883779156058	20.625
	332	1	1	-1.1128	1.12268	24.630883779156058	-1.374999999999993
	333	1	1	-1.1128	14.594873585307468	1.29636	-1.374999999999993
	334	1	1	-1.1128	14.594873585307468	24.630883779156058	-1.374999999999993
	335	1	1	-1.1128	14.594873585307468	6.48181	16.95833
	336	1	1	-1.1128	3.36805	5.18545	-1.374999999999993
	337	1	1	-1.1128	14.594873585307468	6.48181	19.70833
	338	1	1	-1.1128	5.61341	24.630883779156058	16.04167
	339	1	1	-1.1128	5.61341	24.630883779156058	20.625
	340	1	1	-1.1128	5.61341	1.29636	-1.374999999999993
	341	1	1	-1.1128	5.61341	24.630883779156058	-1.374999999999993
	342	1	1	-1.1128	7.85878	5.18545	-1.374999999999993
	343	1	1	-1.1128	10.10415	24.630883779156058	16.04167
	344	1	1	-1.1128	-1.1226835853074686	2.59272	16.95833
	345	1	1	-1.1128	10.10415	24.630883779156058	20.625
	346	1	1	-1.1128	10.10415	1.29636	-1.374999999999993
	347	1	1	-1.1128	10.10415	24.630883779156058	-1.374999999999993
	348	1	1	-1.1128	-1.1226835853074686	2.59272	19.70833
	349	1	1	-1.1128	-1.1226835853074686	5.18545	16.04167
	350	1	1	-1.1128	-1.1226835853074686	5.18545	20.625
	351	1	1	-1.1128	12.34951	5.18545	-1.374999999999993
	352	1	1	-1.1128	-1.1226835853074686	5.18545	-1.374999999999993
	353	1	1	-1.1128	14.594873585307468	9.07454	16.04167
	354	1	1	-1.1128	14.594873585307468	9.07454	20.625
	355	1	1	-1.1128	1.12268	9.07454	-1.374999999999993
	356	1	1	-1.1128	14.594873585307468	9.07454	-1.374999999999993
	357	1	1	-1.1128	14.594873585307468	14.25999	16.95833
	358	1	1	-1.1128	3.36805	12.96362	-1.374999999999993
	359	1	1	-1.1128	14.594873585307468	14.25999	19.70833
	360	1	1	-1.1128	5.61341	9.07454	-1.374999999999993
	361	1	1	-1.1128	7.85878	12.96362	-1.374999999999993
	362	1	1	-1.1128	-1.1226835853074686	10.3709	16.95833
	363	1	1	-1.1128	10.10415	9.07454	-1.374999999999993
	364	1	1	-1.1128	-1.1226835853074686	10.3709	19.70833
	365	1	1	-1.1128	-1.1226835853074686	12.96362	16.04167
	366	1	1	-1.1128	-1.1226835853074686	12.96362	20.625
	367	1	1	-1.1128	12.34951	12.96362	-1.374999999999993
	368	1	1	-1.1128	-1.1226835853074686	12.96362	-1.374999999999993
	369	1	1	-1.1128	14.594873585307468	16.85271	16.04167
	370	1	1	-1.1128	14.594873585307468	16.85271	20.625
	371	1	1	-1.1128	1.12268	16.85271	-1.374999999999993
	372	1	1	-1.1128	14.594873585307468	16.85271	-1.374999999999993
	373	1	1	-1.1128	14.594873585307468	22.03816	16.95833
	374	1	1	-1.1128	1.12268	-1.2963637791560565	16.95833
	375	1	1	-1.1128	14.594873585307468	-1.2963637791560565	16.95833
	376	1	1	-1.1128	3.36805	20.7418	-1.374999999999993
	377	1	1	-1.1128	14.594873585307468	22.03816	19.70833
	378	1	1	-1.1128	1.12268	-1.2963637791560565	19.70833
	379	1	1	-1.1128	14.594873585307468	-1.2963637791560565	19.70833
	380	1	1	-1.1128	5.61341	16.85271	-1.374999999999993
	381	1	1	-1.1128	5.61341	-1.2963637791560565	16.95833
	382	1	1	-1.1128	7.85878	20.7418	-1.374999999999993
	383	1	1	-1.1128	5.61341	-1.2963637791560565	19.70833
	384	1	1	-1.1128	-1.1226835853074686	18.14907	16.95833
	385	1	1	-1.1128	10.10415	16.85271	-1.374999999999993
	386	1	1	-1.1128	-1.1226835853074686	18.14907	19.70833
	387	1	1	-1.1128	-1.1226835853074686	20.7418	16.04167
	388	1	1	-1.1128	10.10415	-1.2963637791560565	16.95833
	389	1	1	-1.1128	-1.1226835853074686	20.7418	20.625
	390	1	1	-1.1128	12.34951	20.7418	-1.374999999999993
	391	1	1	-1.1128	-1.1226835853074686	20.7418	-1.374999999999993
	392	1	1	-1.1128	10.10415	-1.2963637791560565	19.70833

Velocities

	1	0	0	0
	2	0	0	0
	3	0	0	0
	4	0	0	0
	5	0	0	0
	6	0	0	0
	7	0	0	0
	8	0	0	0
	9	0	0	0
	10	0	0	0
	11	0	0	0
	12	0	0	0
	13	0	0	0
	14	0	0	0
	15	0	0	0
	16	0	0	0
	17	0	0	0
	18	0	0	0
	19	0	0	0
	20	0	0	0
	21	0	0	0
	22	0	0	0
	23	0	0	0
	24	0	0	0
	25	0	0	0
	26	0	0	0
	27	0	0	0
	28	0	0	0
	29	0	0	0
	30	0	0	0
	31	0	0	0
	32	0	0	0
	33	0	0	0
	34	0	0	0
	35	0	0	0
	36	0	0	0
	37	0	0	0
	38	0	0	0
	39	0	0	0
	40	0	0	0
	41	0	0	0
	42	0	0	0
	43	0	0	0
	44	0	0	0
	45	0	0	0
	46	0	0	0
	47	0	0	0
	48	0	0	0
	49	0	0	0
	50	0	0	0
	51	0	0	0
	52	0	0	0
	53	0	0	0
	54	0	0	0
	55	0	0	0
	56	0	0	0
	57	0	0	0
	58	0	0	0
	59	0	0	0
	60	0	0	0
	61	0	0	0
	62	0	0	0
	63	0	0	0
	64	0	0	0
	65	0	0	0
	66	0	0	0
	67	0	0	0
	68	0	0	0
	69	0	0	0
	70	0	0	0
	71	0	0	0
	72	0	0	0
	73	0	0	0
	74	0	0	0
	75	0	0	0
	76	0	0	0
	77	0	0	0
	78	0	0	0
	79	0	0	0
	80	0	0	0
	81	0	0	0
	82	0	0	0
	83	0	0	0
	84	0	0	0
	85	0	0	0
	86	0	0	0
	87	0	0	0
	88	0	0	0
	89	0	0	0
	90	0	0	0
	91	0	0	0
	92	0	0	0
	93	0	0	0
	94	0	0	0
	95	0	0	0
	96	0	0	0
	97	0	0	0
	98	0	0	0
	99	0	0	0
	100	0	0	0
	101	0	0	0
	102	0	0	0
	103	0	0	0
	104	0	0	0
	105	0	0	0
	106	0	0	0
	107	0	0	0
	108	0	0	0
	109	0	0	0
	110	0	0	0
	111	0	0	0
	112	0	0	0
	113	0	0	0
	114	0	0	0
	115	0	0	0
	116	0	0	0
	117	0	0	0
	118	0	0	0
	119	0	0	0
	120	0	0	0
	121	0	0	0
	122	0	0	0
	123	0	0	0
	124	0	0	0
	125	0	0	0
	126	0	0	0
	127	0	0	0
	128	0	0	0
	129	0	0	0
	130	0	0	0
	131	0	0	0
	132	0	0	0
	133	0	0	0
	134	0	0	0
	135	0	0	0
	136	0	0	0
	137	0	0	0
	138	0	0	0
	139	0	0	0
	140	0	0	0
	141	0	0	0
	142	0	0	0
	143	0	0	0
	144	0	0	0
	145	0	0	0
	146	0	0	0
	147	0	0	0
	148	0	0	0
	149	0	0	0
	150	0	0	0
	151	0	0	0
	152	0	0	0
	153	0	0	0
	154	0	0	0
	155	0	0	0
	156	0	0	0
	157	0	0	0
	158	0	0	0
	159	0	0	0
	160	0	0	0
	161	0	0	0
	162	0	0	0
	163	0	0	0
	164	0	0	0
	165	0	0	0
	166	0	0	0
	167	0	0	0
	168	0	0	0
	169	0	0	0
	170	0	0	0
	171	0	0	0
	172	0	0	0
	173	0	0	0
	174	0	0	0
	175	0	0	0
	176	0	0	0
	177	0	0	0
	178	0	0	0
	179	0	0	0
	180	0	0	0
	181	0	0	0
	182	0	0	0
	183	0	0	0
	184	0	0	0
	185	0	0	0
	186	0	0	0
	187	0	0	0
	188	0	0	0
	189	0	0	0
	190	0	0	0
	191	0	0	0
	192	0	0	0
	193	0	0	0
	194	0	0	0
	195	0	0	0
	196	0	0	0
	197	0	0	0
	198	0	0	0
	199	0	0	0
	200	0	0	0
	201	0	0	0
	202	0	0	0
	203	0	0	0
	204	0	0	0
	205	0	0	0
	206	0	0	0
	207	0	0	0
	208	0	0	0
	209	0	0	0
	210	0	0	0
	211	0	0	0
	212	0	0	0
	213	0	0	0
	214	0	0	0
	215	0	0	0
	216	0	0	0
	217	0	0	0
	218	0	0	0
	219	0	0	0
	220	0	0	0
	221	0	0	0
	222	0	0	0
	223	0	0	0
	224	0	0	0
	225	0	0	0
	226	0	0	0
	227	0	0	0
	228	0	0	0
	229	0	0	0
	230	0	0	0
	231	0	0	0
	232	0	0	0
	233	0	0	0
	234	0	0	0
	235	0	0	0
	236	0	0	0
	237	0	0	0
	238	0	0	0
	239	0	0	0
	240	0	0	0
	241	0	0	0
	242	0	0	0
	243	0	0	0
	244	0	0	0
	245	0	0	0
	246	0	0	0
	247	0	0	0
	248	0	0	0
	249	0	0	0
	250	0	0	0
	251	0	0	0
	252	0	0	0
	253	0	0	0
	254	0	0	0
	255	0	0	0
	256	0	0	0
	257	0	0	0
	258	0	0	0
	259	0	0	0
	260	0	0	0
	261	0	0	0
	262	0	0	0
	263	0	0	0
	264	0	0	0
	265	0	0	0
	266	0	0	0
	267	0	0	0
	268	0	0	0
	269	0	0	0
	270	0	0	0
	271	0	0	0
	272	0	0	0
	273	0	0	0
	274	0	0	0
	275	0	0	0
	276	0	0	0
	277	0	0	0
	278	0	0	0
	279	0	0	0
	280	0	0	0
	281	0	0	0
	282	0	0	0
	283	0	0	0
	284	0	0	0
	285	0	0	0
	286	0	0	0
	287	0	0	0
	288	0	0	0
	289	0	0	0
	290	0	0	0
	291	0	0	0
	292	0	0	0
	293	0	0	0
	294	0	0	0
	295	0	0	0
	296	0	0	0
	297	0	0	0
	298	0	0	0
	299	0	0	0
	300	0	0	0
	301	0	0	0
	302	0	0	0
	303	0	0	0
	304	0	0	0
	305	0	0	0
	306	0	0	0
	307	0	0	0
	308	0	0	0
	309	0	0	0
	310	0	0	0
	311	0	0	0
	312	0	0	0
	313	0	0	0
	314	0	0	0
	315	0	0	0
	316	0	0	0
	317	0	0	0
	318	0	0	0
	319	0	0	0
	320	0	0	0
	321	0	0	0
	322	0	0	0
	323	0	0	0
	324	0	0	0
	325	0	0	0
	326	0	0	0
	327	0	0	0
	328	0	0	0
	329	0	0	0
	330	0	0	0
	331	0	0	0
	332	0	0	0
	333	0	0	0
	334	0	0	0
	335	0	0	0
	336	0	0	0
	337	0	0	0
	338	0	0	0
	339	0	0	0
	340	0	0	0
	341	0	0	0
	342	0	0	0
	343	0	0	0
	344	0	0	0
	345	0	0	0
	346	0	0	0
	347	0	0	0
	348	0	0	0
	349	0	0	0
	350	0	0	0
	351	0	0	0
	352	0	0	0
	353	0	0	0
	354	0	0	0
	355	0	0	0
	356	0	0	0
	357	0	0	0
	358	0	0	0
	359	0	0	0
	360	0	0	0
	361	0	0	0
	362	0	0	0
	363	0	0	0
	364	0	0	0
	365	0	0	0
	366	0	0	0
	367	0	0	0
	368	0	0	0
	369	0	0	0
	370	0	0	0
	371	0	0	0
	372	0	0	0
	373	0	0	0
	374	0	0	0
	375	0	0	0
	376	0	0	0
	377	0	0	0
	378	0	0	0
	379	0	0	0
	380	0	0	0
	381	0	0	0
	382	0	0	0
	383	0	0	0
	384	0	0	0
	385	0	0	0
	386	0	0	0
	387	0	0	0
	388	0	0	0
	389	0	0	0
	390	0	0	0
	391	0	0	0
	392	0	0	0
