LAMMPS data file via write_data, version 3 Aug 2022, timestep = 0

64 atoms
1 atom types

0 8.98146239020498 xlo xhi
0 15.55634918610404 ylo yhi
0 14.66666666666666 zlo zhi

Masses

1 15.9994

Atoms # full

1 0 1 0 1.1226827987756225 1.296362432175339 1.3749999999999996 0 0 0
2 0 1 0 3.3680483963268673 2.5927248643506706 2.2916666666666656 0 0 0
3 0 1 0 1.1226827987756225 1.296362432175339 5.958333333333331 0 0 0
4 0 1 0 3.3680483963268673 2.5927248643506706 5.041666666666664 0 0 0
5 0 1 0 3.3680483963268673 5.185449728701349 1.3749999999999996 0 0 0
6 0 1 0 1.1226827987756225 6.4818121608766806 2.2916666666666656 0 0 0
7 0 1 0 3.3680483963268673 5.185449728701349 5.958333333333331 0 0 0
8 0 1 0 1.1226827987756225 6.4818121608766806 5.041666666666664 0 0 0
9 0 1 0 5.613413993878113 1.296362432175339 1.3749999999999996 0 0 0
10 0 1 0 7.858779591429357 2.5927248643506706 2.2916666666666656 0 0 0
11 0 1 0 5.613413993878113 1.296362432175339 5.958333333333331 0 0 0
12 0 1 0 7.858779591429357 2.5927248643506706 5.041666666666664 0 0 0
13 0 1 0 7.858779591429357 5.185449728701349 1.3749999999999996 0 0 0
14 0 1 0 5.613413993878113 6.4818121608766806 2.2916666666666656 0 0 0
15 0 1 0 7.858779591429357 5.185449728701349 5.958333333333331 0 0 0
16 0 1 0 5.613413993878113 6.4818121608766806 5.041666666666664 0 0 0
17 0 1 0 1.1226827987756225 9.07453702522736 1.3749999999999996 0 0 0
18 0 1 0 3.3680483963268673 10.370899457402691 2.2916666666666656 0 0 0
19 0 1 0 1.1226827987756225 9.07453702522736 5.958333333333331 0 0 0
20 0 1 0 3.3680483963268673 10.370899457402691 5.041666666666664 0 0 0
21 0 1 0 3.3680483963268673 12.963624321753368 1.3749999999999996 0 0 0
22 0 1 0 1.1226827987756225 14.2599867539287 2.2916666666666656 0 0 0
23 0 1 0 3.3680483963268673 12.963624321753368 5.958333333333331 0 0 0
24 0 1 0 1.1226827987756225 14.2599867539287 5.041666666666664 0 0 0
25 0 1 0 5.613413993878113 9.07453702522736 1.3749999999999996 0 0 0
26 0 1 0 7.858779591429357 10.370899457402691 2.2916666666666656 0 0 0
27 0 1 0 5.613413993878113 9.07453702522736 5.958333333333331 0 0 0
28 0 1 0 7.858779591429357 10.370899457402691 5.041666666666664 0 0 0
29 0 1 0 7.858779591429357 12.963624321753368 1.3749999999999996 0 0 0
30 0 1 0 5.613413993878113 14.2599867539287 2.2916666666666656 0 0 0
31 0 1 0 7.858779591429357 12.963624321753368 5.958333333333331 0 0 0
32 0 1 0 5.613413993878113 14.2599867539287 5.041666666666664 0 0 0
33 0 1 0 1.1226827987756225 1.296362432175339 8.70833333333333 0 0 0
34 0 1 0 3.3680483963268673 2.5927248643506706 9.624999999999996 0 0 0
35 0 1 0 1.1226827987756225 1.296362432175339 13.29166666666666 0 0 0
36 0 1 0 3.3680483963268673 2.5927248643506706 12.374999999999995 0 0 0
37 0 1 0 3.3680483963268673 5.185449728701349 8.70833333333333 0 0 0
38 0 1 0 1.1226827987756225 6.4818121608766806 9.624999999999996 0 0 0
39 0 1 0 3.3680483963268673 5.185449728701349 13.29166666666666 0 0 0
40 0 1 0 1.1226827987756225 6.4818121608766806 12.374999999999995 0 0 0
41 0 1 0 5.613413993878113 1.296362432175339 8.70833333333333 0 0 0
42 0 1 0 7.858779591429357 2.5927248643506706 9.624999999999996 0 0 0
43 0 1 0 5.613413993878113 1.296362432175339 13.29166666666666 0 0 0
44 0 1 0 7.858779591429357 2.5927248643506706 12.374999999999995 0 0 0
45 0 1 0 7.858779591429357 5.185449728701349 8.70833333333333 0 0 0
46 0 1 0 5.613413993878113 6.4818121608766806 9.624999999999996 0 0 0
47 0 1 0 7.858779591429357 5.185449728701349 13.29166666666666 0 0 0
48 0 1 0 5.613413993878113 6.4818121608766806 12.374999999999995 0 0 0
49 0 1 0 1.1226827987756225 9.07453702522736 8.70833333333333 0 0 0
50 0 1 0 3.3680483963268673 10.370899457402691 9.624999999999996 0 0 0
51 0 1 0 1.1226827987756225 9.07453702522736 13.29166666666666 0 0 0
52 0 1 0 3.3680483963268673 10.370899457402691 12.374999999999995 0 0 0
53 0 1 0 3.3680483963268673 12.963624321753368 8.70833333333333 0 0 0
54 0 1 0 1.1226827987756225 14.2599867539287 9.624999999999996 0 0 0
55 0 1 0 3.3680483963268673 12.963624321753368 13.29166666666666 0 0 0
56 0 1 0 1.1226827987756225 14.2599867539287 12.374999999999995 0 0 0
57 0 1 0 5.613413993878113 9.07453702522736 8.70833333333333 0 0 0
58 0 1 0 7.858779591429357 10.370899457402691 9.624999999999996 0 0 0
59 0 1 0 5.613413993878113 9.07453702522736 13.29166666666666 0 0 0
60 0 1 0 7.858779591429357 10.370899457402691 12.374999999999995 0 0 0
61 0 1 0 7.858779591429357 12.963624321753368 8.70833333333333 0 0 0
62 0 1 0 5.613413993878113 14.2599867539287 9.624999999999996 0 0 0
63 0 1 0 7.858779591429357 12.963624321753368 13.29166666666666 0 0 0
64 0 1 0 5.613413993878113 14.2599867539287 12.374999999999995 0 0 0

Velocities

1 0 0 0
2 0 0 0
3 0 0 0
4 0 0 0
5 0 0 0
6 0 0 0
7 0 0 0
8 0 0 0
9 0 0 0
10 0 0 0
11 0 0 0
12 0 0 0
13 0 0 0
14 0 0 0
15 0 0 0
16 0 0 0
17 0 0 0
18 0 0 0
19 0 0 0
20 0 0 0
21 0 0 0
22 0 0 0
23 0 0 0
24 0 0 0
25 0 0 0
26 0 0 0
27 0 0 0
28 0 0 0
29 0 0 0
30 0 0 0
31 0 0 0
32 0 0 0
33 0 0 0
34 0 0 0
35 0 0 0
36 0 0 0
37 0 0 0
38 0 0 0
39 0 0 0
40 0 0 0
41 0 0 0
42 0 0 0
43 0 0 0
44 0 0 0
45 0 0 0
46 0 0 0
47 0 0 0
48 0 0 0
49 0 0 0
50 0 0 0
51 0 0 0
52 0 0 0
53 0 0 0
54 0 0 0
55 0 0 0
56 0 0 0
57 0 0 0
58 0 0 0
59 0 0 0
60 0 0 0
61 0 0 0
62 0 0 0
63 0 0 0
64 0 0 0
