LAMMPS data file via write_data, version 3 Aug 2022, timestep = 0

20 atoms
1 atom types

0 4.505999999999998 xlo xhi
0 3.9023105058 ylo yhi
0 7.346 zlo zhi
-2.2530000210000023 0 0 xy xz yz

Masses

1 15.9994

Atoms # full

1 0 1 0 -1.1747001371631427e-08 2.60154056483478 0.45398278530800007 0 0 0
2 0 1 0 2.252999993000001 1.3007701633969193 6.892017185308001 0 0 0
3 0 1 0 2.252999993000001 1.3007701633969193 4.1269830571099995 0 0 0
4 0 1 0 -1.1747001371631427e-08 2.60154056483478 3.219017185308 0 0 0
5 0 1 0 -1.1747001371631427e-08 2.60154056483478 1.454508029384 0 0 0
6 0 1 0 2.252999993000001 1.3007701633969193 5.891491735543999 0 0 0
7 0 1 0 2.252999993000001 1.3007701633969193 5.127508029384001 0 0 0
8 0 1 0 -1.1747001371631427e-08 2.60154056483478 2.218491970616 0 0 0
9 0 1 0 -1.8354000763665113e-08 3.4106194991385155 0.20568800734600004 0 0 0
10 0 1 0 2.2529997607889998 0.4916910808053845 7.140312007346001 0 0 0
11 0 1 0 -0.700683000558 2.1970007406215006 0.20568800734600004 0 0 0
12 0 1 0 2.9536831012199998 1.7053097495692577 7.140312007346001 0 0 0
13 0 1 0 0.7006830985740002 2.1970007406215006 0.20568800734600004 0 0 0
14 0 1 0 1.552316880426 1.7053097495692577 7.140312007346001 0 0 0
15 0 1 0 2.2529997607889998 0.4916910808053845 3.8786879926540014 0 0 0
16 0 1 0 -1.8354000763665113e-08 3.4106194991385155 3.467312007346 0 0 0
17 0 1 0 2.9536831012199998 1.7053097495692577 3.8786879926540014 0 0 0
18 0 1 0 -0.700683000558 2.1970007406215006 3.467312007346 0 0 0
19 0 1 0 1.552316880426 1.7053097495692577 3.8786879926540014 0 0 0
20 0 1 0 0.7006830985740002 2.1970007406215006 3.467312007346 0 0 0

Velocities

1 0 0 0
2 0 0 0
3 0 0 0
4 0 0 0
5 0 0 0
6 0 0 0
7 0 0 0
8 0 0 0
9 0 0 0
10 0 0 0
11 0 0 0
12 0 0 0
13 0 0 0
14 0 0 0
15 0 0 0
16 0 0 0
17 0 0 0
18 0 0 0
19 0 0 0
20 0 0 0
