LAMMPS data file via write_data, version 3 Aug 2022, timestep = 0

9 atoms
1 atom types

0 4.505999999999998 xlo xhi
0 3.9023105058 ylo yhi
0 7.346 zlo zhi
-2.2530000210000023 0 0 xy xz yz

Masses

1 15.9994

Atoms # full

1 0 1 0 -1.1747001371631427e-08 2.60154056483478 0.45398278530800007 0 0 0
2 0 1 0 2.252999993000001 1.3007701633969193 6.892017185308001 0 0 0
3 0 1 0 2.252999993000001 1.3007701633969193 4.1269830571099995 0 0 0
4 0 1 0 -1.1747001371631427e-08 2.60154056483478 3.219017185308 0 0 0
5 0 1 0 -1.1747001371631427e-08 2.60154056483478 1.454508029384 0 0 0
6 0 1 0 2.252999993000001 1.3007701633969193 5.891491735543999 0 0 0
7 0 1 0 2.252999993000001 1.3007701633969193 5.127508029384001 0 0 0
8 0 1 0 -1.1747001371631427e-08 2.60154056483478 2.218491970616 0 0 0
9 0 1 0 -1.8354000763665113e-08 3.4106194991385155 0.20568800734600004 0 0 0

Velocities

1 0 0 0
2 0 0 0
3 0 0 0
4 0 0 0
5 0 0 0
6 0 0 0
7 0 0 0
8 0 0 0
9 0 0 0
