LAMMPS data file via write_data, version 3 Aug 2022, timestep = 0

16 atoms
1 atom types

0 4.49073119510249 xlo xhi
0 15.55634918610404 ylo yhi
0 7.33333333333333 zlo zhi

Masses

1 15.9994

Atoms # full

1 0 1 0 1.1226827987756225 1.296362432175339 1.3749999999999996 0 0 0
2 0 1 0 3.3680483963268673 2.5927248643506706 2.2916666666666656 0 0 0
3 0 1 0 1.1226827987756225 1.296362432175339 5.958333333333331 0 0 0
4 0 1 0 3.3680483963268673 2.5927248643506706 5.041666666666664 0 0 0
5 0 1 0 3.3680483963268673 5.185449728701349 1.3749999999999996 0 0 0
6 0 1 0 1.1226827987756225 6.4818121608766806 2.2916666666666656 0 0 0
7 0 1 0 3.3680483963268673 5.185449728701349 5.958333333333331 0 0 0
8 0 1 0 1.1226827987756225 6.4818121608766806 5.041666666666664 0 0 0
9 0 1 0 1.1226827987756225 9.07453702522736 1.3749999999999996 0 0 0
10 0 1 0 3.3680483963268673 10.370899457402691 2.2916666666666656 0 0 0
11 0 1 0 1.1226827987756225 9.07453702522736 5.958333333333331 0 0 0
12 0 1 0 3.3680483963268673 10.370899457402691 5.041666666666664 0 0 0
13 0 1 0 3.3680483963268673 12.963624321753368 1.3749999999999996 0 0 0
14 0 1 0 1.1226827987756225 14.2599867539287 2.2916666666666656 0 0 0
15 0 1 0 3.3680483963268673 12.963624321753368 5.958333333333331 0 0 0
16 0 1 0 1.1226827987756225 14.2599867539287 5.041666666666664 0 0 0

Velocities

1 0 0 0
2 0 0 0
3 0 0 0
4 0 0 0
5 0 0 0
6 0 0 0
7 0 0 0
8 0 0 0
9 0 0 0
10 0 0 0
11 0 0 0
12 0 0 0
13 0 0 0
14 0 0 0
15 0 0 0
16 0 0 0
