LAMMPS data file via write_data, version 3 Aug 2022, timestep = 0

504 atoms
1 atom types

0 13.472193585307469 xlo xhi
0 54.44722215136414 ylo yhi
0 21.999999999999993 zlo zhi

Masses

1 15.9994

Atoms # full

1 0 1 0 1.1226827987756225 1.296362432175339 1.3749999999999996 0 0 0
2 0 1 0 3.3680483963268673 2.5927248643506706 2.2916666666666656 0 0 0
3 0 1 0 1.1226827987756225 1.296362432175339 5.958333333333331 0 0 0
4 0 1 0 3.3680483963268673 2.5927248643506706 5.041666666666664 0 0 0
5 0 1 0 3.3680483963268673 5.185449728701349 1.3749999999999996 0 0 0
6 0 1 0 1.1226827987756225 6.4818121608766806 2.2916666666666656 0 0 0
7 0 1 0 3.3680483963268673 5.185449728701349 5.958333333333331 0 0 0
8 0 1 0 1.1226827987756225 6.4818121608766806 5.041666666666664 0 0 0
9 0 1 0 5.613413993878113 1.296362432175339 1.3749999999999996 0 0 0
10 0 1 0 7.858779591429357 2.5927248643506706 2.2916666666666656 0 0 0
11 0 1 0 5.613413993878113 1.296362432175339 5.958333333333331 0 0 0
12 0 1 0 7.858779591429357 2.5927248643506706 5.041666666666664 0 0 0
13 0 1 0 7.858779591429357 5.185449728701349 1.3749999999999996 0 0 0
14 0 1 0 5.613413993878113 6.4818121608766806 2.2916666666666656 0 0 0
15 0 1 0 7.858779591429357 5.185449728701349 5.958333333333331 0 0 0
16 0 1 0 5.613413993878113 6.4818121608766806 5.041666666666664 0 0 0
17 0 1 0 10.104145188980603 1.296362432175339 1.3749999999999996 0 0 0
18 0 1 0 12.349510786531848 2.5927248643506706 2.2916666666666656 0 0 0
19 0 1 0 10.104145188980603 1.296362432175339 5.958333333333331 0 0 0
20 0 1 0 12.349510786531848 2.5927248643506706 5.041666666666664 0 0 0
21 0 1 0 12.349510786531848 5.185449728701349 1.3749999999999996 0 0 0
22 0 1 0 10.104145188980603 6.4818121608766806 2.2916666666666656 0 0 0
23 0 1 0 12.349510786531848 5.185449728701349 5.958333333333331 0 0 0
24 0 1 0 10.104145188980603 6.4818121608766806 5.041666666666664 0 0 0
25 0 1 0 1.1226827987756225 9.07453702522736 1.3749999999999996 0 0 0
26 0 1 0 3.3680483963268673 10.370899457402691 2.2916666666666656 0 0 0
27 0 1 0 1.1226827987756225 9.07453702522736 5.958333333333331 0 0 0
28 0 1 0 3.3680483963268673 10.370899457402691 5.041666666666664 0 0 0
29 0 1 0 3.3680483963268673 12.963624321753368 1.3749999999999996 0 0 0
30 0 1 0 1.1226827987756225 14.2599867539287 2.2916666666666656 0 0 0
31 0 1 0 3.3680483963268673 12.963624321753368 5.958333333333331 0 0 0
32 0 1 0 1.1226827987756225 14.2599867539287 5.041666666666664 0 0 0
33 0 1 0 5.613413993878113 9.07453702522736 1.3749999999999996 0 0 0
34 0 1 0 7.858779591429357 10.370899457402691 2.2916666666666656 0 0 0
35 0 1 0 5.613413993878113 9.07453702522736 5.958333333333331 0 0 0
36 0 1 0 7.858779591429357 10.370899457402691 5.041666666666664 0 0 0
37 0 1 0 7.858779591429357 12.963624321753368 1.3749999999999996 0 0 0
38 0 1 0 5.613413993878113 14.2599867539287 2.2916666666666656 0 0 0
39 0 1 0 7.858779591429357 12.963624321753368 5.958333333333331 0 0 0
40 0 1 0 5.613413993878113 14.2599867539287 5.041666666666664 0 0 0
41 0 1 0 10.104145188980603 9.07453702522736 1.3749999999999996 0 0 0
42 0 1 0 12.349510786531848 10.370899457402691 2.2916666666666656 0 0 0
43 0 1 0 10.104145188980603 9.07453702522736 5.958333333333331 0 0 0
44 0 1 0 12.349510786531848 10.370899457402691 5.041666666666664 0 0 0
45 0 1 0 12.349510786531848 12.963624321753368 1.3749999999999996 0 0 0
46 0 1 0 10.104145188980603 14.2599867539287 2.2916666666666656 0 0 0
47 0 1 0 12.349510786531848 12.963624321753368 5.958333333333331 0 0 0
48 0 1 0 10.104145188980603 14.2599867539287 5.041666666666664 0 0 0
49 0 1 0 1.1226827987756225 16.85271161827938 1.3749999999999996 0 0 0
50 0 1 0 3.3680483963268673 18.14907405045471 2.2916666666666656 0 0 0
51 0 1 0 1.1226827987756225 16.85271161827938 5.958333333333331 0 0 0
52 0 1 0 3.3680483963268673 18.14907405045471 5.041666666666664 0 0 0
53 0 1 0 3.3680483963268673 20.74179891480539 1.3749999999999996 0 0 0
54 0 1 0 1.1226827987756225 22.038161346980722 2.2916666666666656 0 0 0
55 0 1 0 3.3680483963268673 20.74179891480539 5.958333333333331 0 0 0
56 0 1 0 1.1226827987756225 22.038161346980722 5.041666666666664 0 0 0
57 0 1 0 5.613413993878113 16.85271161827938 1.3749999999999996 0 0 0
58 0 1 0 7.858779591429357 18.14907405045471 2.2916666666666656 0 0 0
59 0 1 0 5.613413993878113 16.85271161827938 5.958333333333331 0 0 0
60 0 1 0 7.858779591429357 18.14907405045471 5.041666666666664 0 0 0
61 0 1 0 7.858779591429357 20.74179891480539 1.3749999999999996 0 0 0
62 0 1 0 5.613413993878113 22.038161346980722 2.2916666666666656 0 0 0
63 0 1 0 7.858779591429357 20.74179891480539 5.958333333333331 0 0 0
64 0 1 0 5.613413993878113 22.038161346980722 5.041666666666664 0 0 0
65 0 1 0 10.104145188980603 16.85271161827938 1.3749999999999996 0 0 0
66 0 1 0 12.349510786531848 18.14907405045471 2.2916666666666656 0 0 0
67 0 1 0 10.104145188980603 16.85271161827938 5.958333333333331 0 0 0
68 0 1 0 12.349510786531848 18.14907405045471 5.041666666666664 0 0 0
69 0 1 0 12.349510786531848 20.74179891480539 1.3749999999999996 0 0 0
70 0 1 0 10.104145188980603 22.038161346980722 2.2916666666666656 0 0 0
71 0 1 0 12.349510786531848 20.74179891480539 5.958333333333331 0 0 0
72 0 1 0 10.104145188980603 22.038161346980722 5.041666666666664 0 0 0
73 0 1 0 1.1226827987756225 24.630886211331397 1.3749999999999996 0 0 0
74 0 1 0 3.3680483963268673 25.92724864350673 2.2916666666666656 0 0 0
75 0 1 0 1.1226827987756225 24.630886211331397 5.958333333333331 0 0 0
76 0 1 0 3.3680483963268673 25.92724864350673 5.041666666666664 0 0 0
77 0 1 0 3.3680483963268673 28.519973507857408 1.3749999999999996 0 0 0
78 0 1 0 1.1226827987756225 29.81633594003274 2.2916666666666656 0 0 0
79 0 1 0 3.3680483963268673 28.519973507857408 5.958333333333331 0 0 0
80 0 1 0 1.1226827987756225 29.81633594003274 5.041666666666664 0 0 0
81 0 1 0 5.613413993878113 24.630886211331397 1.3749999999999996 0 0 0
82 0 1 0 7.858779591429357 25.92724864350673 2.2916666666666656 0 0 0
83 0 1 0 5.613413993878113 24.630886211331397 5.958333333333331 0 0 0
84 0 1 0 7.858779591429357 25.92724864350673 5.041666666666664 0 0 0
85 0 1 0 7.858779591429357 28.519973507857408 1.3749999999999996 0 0 0
86 0 1 0 5.613413993878113 29.81633594003274 2.2916666666666656 0 0 0
87 0 1 0 7.858779591429357 28.519973507857408 5.958333333333331 0 0 0
88 0 1 0 5.613413993878113 29.81633594003274 5.041666666666664 0 0 0
89 0 1 0 10.104145188980603 24.630886211331397 1.3749999999999996 0 0 0
90 0 1 0 12.349510786531848 25.92724864350673 2.2916666666666656 0 0 0
91 0 1 0 10.104145188980603 24.630886211331397 5.958333333333331 0 0 0
92 0 1 0 12.349510786531848 25.92724864350673 5.041666666666664 0 0 0
93 0 1 0 12.349510786531848 28.519973507857408 1.3749999999999996 0 0 0
94 0 1 0 10.104145188980603 29.81633594003274 2.2916666666666656 0 0 0
95 0 1 0 12.349510786531848 28.519973507857408 5.958333333333331 0 0 0
96 0 1 0 10.104145188980603 29.81633594003274 5.041666666666664 0 0 0
97 0 1 0 1.1226827987756225 32.409060804383415 1.3749999999999996 0 0 0
98 0 1 0 3.3680483963268673 33.70542323655875 2.2916666666666656 0 0 0
99 0 1 0 1.1226827987756225 32.409060804383415 5.958333333333331 0 0 0
100 0 1 0 3.3680483963268673 33.70542323655875 5.041666666666664 0 0 0
101 0 1 0 3.3680483963268673 36.29814810090943 1.3749999999999996 0 0 0
102 0 1 0 1.1226827987756225 37.59451053308476 2.2916666666666656 0 0 0
103 0 1 0 3.3680483963268673 36.29814810090943 5.958333333333331 0 0 0
104 0 1 0 1.1226827987756225 37.59451053308476 5.041666666666664 0 0 0
105 0 1 0 5.613413993878113 32.409060804383415 1.3749999999999996 0 0 0
106 0 1 0 7.858779591429357 33.70542323655875 2.2916666666666656 0 0 0
107 0 1 0 5.613413993878113 32.409060804383415 5.958333333333331 0 0 0
108 0 1 0 7.858779591429357 33.70542323655875 5.041666666666664 0 0 0
109 0 1 0 7.858779591429357 36.29814810090943 1.3749999999999996 0 0 0
110 0 1 0 5.613413993878113 37.59451053308476 2.2916666666666656 0 0 0
111 0 1 0 7.858779591429357 36.29814810090943 5.958333333333331 0 0 0
112 0 1 0 5.613413993878113 37.59451053308476 5.041666666666664 0 0 0
113 0 1 0 10.104145188980603 32.409060804383415 1.3749999999999996 0 0 0
114 0 1 0 12.349510786531848 33.70542323655875 2.2916666666666656 0 0 0
115 0 1 0 10.104145188980603 32.409060804383415 5.958333333333331 0 0 0
116 0 1 0 12.349510786531848 33.70542323655875 5.041666666666664 0 0 0
117 0 1 0 12.349510786531848 36.29814810090943 1.3749999999999996 0 0 0
118 0 1 0 10.104145188980603 37.59451053308476 2.2916666666666656 0 0 0
119 0 1 0 12.349510786531848 36.29814810090943 5.958333333333331 0 0 0
120 0 1 0 10.104145188980603 37.59451053308476 5.041666666666664 0 0 0
121 0 1 0 1.1226827987756225 40.18723539743544 1.3749999999999996 0 0 0
122 0 1 0 3.3680483963268673 41.48359782961077 2.2916666666666656 0 0 0
123 0 1 0 1.1226827987756225 40.18723539743544 5.958333333333331 0 0 0
124 0 1 0 3.3680483963268673 41.48359782961077 5.041666666666664 0 0 0
125 0 1 0 3.3680483963268673 44.07632269396145 1.3749999999999996 0 0 0
126 0 1 0 1.1226827987756225 45.37268512613678 2.2916666666666656 0 0 0
127 0 1 0 3.3680483963268673 44.07632269396145 5.958333333333331 0 0 0
128 0 1 0 1.1226827987756225 45.37268512613678 5.041666666666664 0 0 0
129 0 1 0 5.613413993878113 40.18723539743544 1.3749999999999996 0 0 0
130 0 1 0 7.858779591429357 41.48359782961077 2.2916666666666656 0 0 0
131 0 1 0 5.613413993878113 40.18723539743544 5.958333333333331 0 0 0
132 0 1 0 7.858779591429357 41.48359782961077 5.041666666666664 0 0 0
133 0 1 0 7.858779591429357 44.07632269396145 1.3749999999999996 0 0 0
134 0 1 0 5.613413993878113 45.37268512613678 2.2916666666666656 0 0 0
135 0 1 0 7.858779591429357 44.07632269396145 5.958333333333331 0 0 0
136 0 1 0 5.613413993878113 45.37268512613678 5.041666666666664 0 0 0
137 0 1 0 10.104145188980603 40.18723539743544 1.3749999999999996 0 0 0
138 0 1 0 12.349510786531848 41.48359782961077 2.2916666666666656 0 0 0
139 0 1 0 10.104145188980603 40.18723539743544 5.958333333333331 0 0 0
140 0 1 0 12.349510786531848 41.48359782961077 5.041666666666664 0 0 0
141 0 1 0 12.349510786531848 44.07632269396145 1.3749999999999996 0 0 0
142 0 1 0 10.104145188980603 45.37268512613678 2.2916666666666656 0 0 0
143 0 1 0 12.349510786531848 44.07632269396145 5.958333333333331 0 0 0
144 0 1 0 10.104145188980603 45.37268512613678 5.041666666666664 0 0 0
145 0 1 0 1.1226827987756225 47.96540999048746 1.3749999999999996 0 0 0
146 0 1 0 3.3680483963268673 49.26177242266279 2.2916666666666656 0 0 0
147 0 1 0 1.1226827987756225 47.96540999048746 5.958333333333331 0 0 0
148 0 1 0 3.3680483963268673 49.26177242266279 5.041666666666664 0 0 0
149 0 1 0 3.3680483963268673 51.854497287013466 1.3749999999999996 0 0 0
150 0 1 0 1.1226827987756225 53.1508597191888 2.2916666666666656 0 0 0
151 0 1 0 3.3680483963268673 51.854497287013466 5.958333333333331 0 0 0
152 0 1 0 1.1226827987756225 53.1508597191888 5.041666666666664 0 0 0
153 0 1 0 5.613413993878113 47.96540999048746 1.3749999999999996 0 0 0
154 0 1 0 7.858779591429357 49.26177242266279 2.2916666666666656 0 0 0
155 0 1 0 5.613413993878113 47.96540999048746 5.958333333333331 0 0 0
156 0 1 0 7.858779591429357 49.26177242266279 5.041666666666664 0 0 0
157 0 1 0 7.858779591429357 51.854497287013466 1.3749999999999996 0 0 0
158 0 1 0 5.613413993878113 53.1508597191888 2.2916666666666656 0 0 0
159 0 1 0 7.858779591429357 51.854497287013466 5.958333333333331 0 0 0
160 0 1 0 5.613413993878113 53.1508597191888 5.041666666666664 0 0 0
161 0 1 0 10.104145188980603 47.96540999048746 1.3749999999999996 0 0 0
162 0 1 0 12.349510786531848 49.26177242266279 2.2916666666666656 0 0 0
163 0 1 0 10.104145188980603 47.96540999048746 5.958333333333331 0 0 0
164 0 1 0 12.349510786531848 49.26177242266279 5.041666666666664 0 0 0
165 0 1 0 12.349510786531848 51.854497287013466 1.3749999999999996 0 0 0
166 0 1 0 10.104145188980603 53.1508597191888 2.2916666666666656 0 0 0
167 0 1 0 12.349510786531848 51.854497287013466 5.958333333333331 0 0 0
168 0 1 0 10.104145188980603 53.1508597191888 5.041666666666664 0 0 0
169 0 1 0 1.1226827987756225 1.296362432175339 8.70833333333333 0 0 0
170 0 1 0 3.3680483963268673 2.5927248643506706 9.624999999999996 0 0 0
171 0 1 0 1.1226827987756225 1.296362432175339 13.29166666666666 0 0 0
172 0 1 0 3.3680483963268673 2.5927248643506706 12.374999999999995 0 0 0
173 0 1 0 3.3680483963268673 5.185449728701349 8.70833333333333 0 0 0
174 0 1 0 1.1226827987756225 6.4818121608766806 9.624999999999996 0 0 0
175 0 1 0 3.3680483963268673 5.185449728701349 13.29166666666666 0 0 0
176 0 1 0 1.1226827987756225 6.4818121608766806 12.374999999999995 0 0 0
177 0 1 0 5.613413993878113 1.296362432175339 8.70833333333333 0 0 0
178 0 1 0 7.858779591429357 2.5927248643506706 9.624999999999996 0 0 0
179 0 1 0 5.613413993878113 1.296362432175339 13.29166666666666 0 0 0
180 0 1 0 7.858779591429357 2.5927248643506706 12.374999999999995 0 0 0
181 0 1 0 7.858779591429357 5.185449728701349 8.70833333333333 0 0 0
182 0 1 0 5.613413993878113 6.4818121608766806 9.624999999999996 0 0 0
183 0 1 0 7.858779591429357 5.185449728701349 13.29166666666666 0 0 0
184 0 1 0 5.613413993878113 6.4818121608766806 12.374999999999995 0 0 0
185 0 1 0 10.104145188980603 1.296362432175339 8.70833333333333 0 0 0
186 0 1 0 12.349510786531848 2.5927248643506706 9.624999999999996 0 0 0
187 0 1 0 10.104145188980603 1.296362432175339 13.29166666666666 0 0 0
188 0 1 0 12.349510786531848 2.5927248643506706 12.374999999999995 0 0 0
189 0 1 0 12.349510786531848 5.185449728701349 8.70833333333333 0 0 0
190 0 1 0 10.104145188980603 6.4818121608766806 9.624999999999996 0 0 0
191 0 1 0 12.349510786531848 5.185449728701349 13.29166666666666 0 0 0
192 0 1 0 10.104145188980603 6.4818121608766806 12.374999999999995 0 0 0
193 0 1 0 1.1226827987756225 9.07453702522736 8.70833333333333 0 0 0
194 0 1 0 3.3680483963268673 10.370899457402691 9.624999999999996 0 0 0
195 0 1 0 1.1226827987756225 9.07453702522736 13.29166666666666 0 0 0
196 0 1 0 3.3680483963268673 10.370899457402691 12.374999999999995 0 0 0
197 0 1 0 3.3680483963268673 12.963624321753368 8.70833333333333 0 0 0
198 0 1 0 1.1226827987756225 14.2599867539287 9.624999999999996 0 0 0
199 0 1 0 3.3680483963268673 12.963624321753368 13.29166666666666 0 0 0
200 0 1 0 1.1226827987756225 14.2599867539287 12.374999999999995 0 0 0
201 0 1 0 5.613413993878113 9.07453702522736 8.70833333333333 0 0 0
202 0 1 0 7.858779591429357 10.370899457402691 9.624999999999996 0 0 0
203 0 1 0 5.613413993878113 9.07453702522736 13.29166666666666 0 0 0
204 0 1 0 7.858779591429357 10.370899457402691 12.374999999999995 0 0 0
205 0 1 0 7.858779591429357 12.963624321753368 8.70833333333333 0 0 0
206 0 1 0 5.613413993878113 14.2599867539287 9.624999999999996 0 0 0
207 0 1 0 7.858779591429357 12.963624321753368 13.29166666666666 0 0 0
208 0 1 0 5.613413993878113 14.2599867539287 12.374999999999995 0 0 0
209 0 1 0 10.104145188980603 9.07453702522736 8.70833333333333 0 0 0
210 0 1 0 12.349510786531848 10.370899457402691 9.624999999999996 0 0 0
211 0 1 0 10.104145188980603 9.07453702522736 13.29166666666666 0 0 0
212 0 1 0 12.349510786531848 10.370899457402691 12.374999999999995 0 0 0
213 0 1 0 12.349510786531848 12.963624321753368 8.70833333333333 0 0 0
214 0 1 0 10.104145188980603 14.2599867539287 9.624999999999996 0 0 0
215 0 1 0 12.349510786531848 12.963624321753368 13.29166666666666 0 0 0
216 0 1 0 10.104145188980603 14.2599867539287 12.374999999999995 0 0 0
217 0 1 0 1.1226827987756225 16.85271161827938 8.70833333333333 0 0 0
218 0 1 0 3.3680483963268673 18.14907405045471 9.624999999999996 0 0 0
219 0 1 0 1.1226827987756225 16.85271161827938 13.29166666666666 0 0 0
220 0 1 0 3.3680483963268673 18.14907405045471 12.374999999999995 0 0 0
221 0 1 0 3.3680483963268673 20.74179891480539 8.70833333333333 0 0 0
222 0 1 0 1.1226827987756225 22.038161346980722 9.624999999999996 0 0 0
223 0 1 0 3.3680483963268673 20.74179891480539 13.29166666666666 0 0 0
224 0 1 0 1.1226827987756225 22.038161346980722 12.374999999999995 0 0 0
225 0 1 0 5.613413993878113 16.85271161827938 8.70833333333333 0 0 0
226 0 1 0 7.858779591429357 18.14907405045471 9.624999999999996 0 0 0
227 0 1 0 5.613413993878113 16.85271161827938 13.29166666666666 0 0 0
228 0 1 0 7.858779591429357 18.14907405045471 12.374999999999995 0 0 0
229 0 1 0 7.858779591429357 20.74179891480539 8.70833333333333 0 0 0
230 0 1 0 5.613413993878113 22.038161346980722 9.624999999999996 0 0 0
231 0 1 0 7.858779591429357 20.74179891480539 13.29166666666666 0 0 0
232 0 1 0 5.613413993878113 22.038161346980722 12.374999999999995 0 0 0
233 0 1 0 10.104145188980603 16.85271161827938 8.70833333333333 0 0 0
234 0 1 0 12.349510786531848 18.14907405045471 9.624999999999996 0 0 0
235 0 1 0 10.104145188980603 16.85271161827938 13.29166666666666 0 0 0
236 0 1 0 12.349510786531848 18.14907405045471 12.374999999999995 0 0 0
237 0 1 0 12.349510786531848 20.74179891480539 8.70833333333333 0 0 0
238 0 1 0 10.104145188980603 22.038161346980722 9.624999999999996 0 0 0
239 0 1 0 12.349510786531848 20.74179891480539 13.29166666666666 0 0 0
240 0 1 0 10.104145188980603 22.038161346980722 12.374999999999995 0 0 0
241 0 1 0 1.1226827987756225 24.630886211331397 8.70833333333333 0 0 0
242 0 1 0 3.3680483963268673 25.92724864350673 9.624999999999996 0 0 0
243 0 1 0 1.1226827987756225 24.630886211331397 13.29166666666666 0 0 0
244 0 1 0 3.3680483963268673 25.92724864350673 12.374999999999995 0 0 0
245 0 1 0 3.3680483963268673 28.519973507857408 8.70833333333333 0 0 0
246 0 1 0 1.1226827987756225 29.81633594003274 9.624999999999996 0 0 0
247 0 1 0 3.3680483963268673 28.519973507857408 13.29166666666666 0 0 0
248 0 1 0 1.1226827987756225 29.81633594003274 12.374999999999995 0 0 0
249 0 1 0 5.613413993878113 24.630886211331397 8.70833333333333 0 0 0
250 0 1 0 7.858779591429357 25.92724864350673 9.624999999999996 0 0 0
251 0 1 0 5.613413993878113 24.630886211331397 13.29166666666666 0 0 0
252 0 1 0 7.858779591429357 25.92724864350673 12.374999999999995 0 0 0
253 0 1 0 7.858779591429357 28.519973507857408 8.70833333333333 0 0 0
254 0 1 0 5.613413993878113 29.81633594003274 9.624999999999996 0 0 0
255 0 1 0 7.858779591429357 28.519973507857408 13.29166666666666 0 0 0
256 0 1 0 5.613413993878113 29.81633594003274 12.374999999999995 0 0 0
257 0 1 0 10.104145188980603 24.630886211331397 8.70833333333333 0 0 0
258 0 1 0 12.349510786531848 25.92724864350673 9.624999999999996 0 0 0
259 0 1 0 10.104145188980603 24.630886211331397 13.29166666666666 0 0 0
260 0 1 0 12.349510786531848 25.92724864350673 12.374999999999995 0 0 0
261 0 1 0 12.349510786531848 28.519973507857408 8.70833333333333 0 0 0
262 0 1 0 10.104145188980603 29.81633594003274 9.624999999999996 0 0 0
263 0 1 0 12.349510786531848 28.519973507857408 13.29166666666666 0 0 0
264 0 1 0 10.104145188980603 29.81633594003274 12.374999999999995 0 0 0
265 0 1 0 1.1226827987756225 32.409060804383415 8.70833333333333 0 0 0
266 0 1 0 3.3680483963268673 33.70542323655875 9.624999999999996 0 0 0
267 0 1 0 1.1226827987756225 32.409060804383415 13.29166666666666 0 0 0
268 0 1 0 3.3680483963268673 33.70542323655875 12.374999999999995 0 0 0
269 0 1 0 3.3680483963268673 36.29814810090943 8.70833333333333 0 0 0
270 0 1 0 1.1226827987756225 37.59451053308476 9.624999999999996 0 0 0
271 0 1 0 3.3680483963268673 36.29814810090943 13.29166666666666 0 0 0
272 0 1 0 1.1226827987756225 37.59451053308476 12.374999999999995 0 0 0
273 0 1 0 5.613413993878113 32.409060804383415 8.70833333333333 0 0 0
274 0 1 0 7.858779591429357 33.70542323655875 9.624999999999996 0 0 0
275 0 1 0 5.613413993878113 32.409060804383415 13.29166666666666 0 0 0
276 0 1 0 7.858779591429357 33.70542323655875 12.374999999999995 0 0 0
277 0 1 0 7.858779591429357 36.29814810090943 8.70833333333333 0 0 0
278 0 1 0 5.613413993878113 37.59451053308476 9.624999999999996 0 0 0
279 0 1 0 7.858779591429357 36.29814810090943 13.29166666666666 0 0 0
280 0 1 0 5.613413993878113 37.59451053308476 12.374999999999995 0 0 0
281 0 1 0 10.104145188980603 32.409060804383415 8.70833333333333 0 0 0
282 0 1 0 12.349510786531848 33.70542323655875 9.624999999999996 0 0 0
283 0 1 0 10.104145188980603 32.409060804383415 13.29166666666666 0 0 0
284 0 1 0 12.349510786531848 33.70542323655875 12.374999999999995 0 0 0
285 0 1 0 12.349510786531848 36.29814810090943 8.70833333333333 0 0 0
286 0 1 0 10.104145188980603 37.59451053308476 9.624999999999996 0 0 0
287 0 1 0 12.349510786531848 36.29814810090943 13.29166666666666 0 0 0
288 0 1 0 10.104145188980603 37.59451053308476 12.374999999999995 0 0 0
289 0 1 0 1.1226827987756225 40.18723539743544 8.70833333333333 0 0 0
290 0 1 0 3.3680483963268673 41.48359782961077 9.624999999999996 0 0 0
291 0 1 0 1.1226827987756225 40.18723539743544 13.29166666666666 0 0 0
292 0 1 0 3.3680483963268673 41.48359782961077 12.374999999999995 0 0 0
293 0 1 0 3.3680483963268673 44.07632269396145 8.70833333333333 0 0 0
294 0 1 0 1.1226827987756225 45.37268512613678 9.624999999999996 0 0 0
295 0 1 0 3.3680483963268673 44.07632269396145 13.29166666666666 0 0 0
296 0 1 0 1.1226827987756225 45.37268512613678 12.374999999999995 0 0 0
297 0 1 0 5.613413993878113 40.18723539743544 8.70833333333333 0 0 0
298 0 1 0 7.858779591429357 41.48359782961077 9.624999999999996 0 0 0
299 0 1 0 5.613413993878113 40.18723539743544 13.29166666666666 0 0 0
300 0 1 0 7.858779591429357 41.48359782961077 12.374999999999995 0 0 0
301 0 1 0 7.858779591429357 44.07632269396145 8.70833333333333 0 0 0
302 0 1 0 5.613413993878113 45.37268512613678 9.624999999999996 0 0 0
303 0 1 0 7.858779591429357 44.07632269396145 13.29166666666666 0 0 0
304 0 1 0 5.613413993878113 45.37268512613678 12.374999999999995 0 0 0
305 0 1 0 10.104145188980603 40.18723539743544 8.70833333333333 0 0 0
306 0 1 0 12.349510786531848 41.48359782961077 9.624999999999996 0 0 0
307 0 1 0 10.104145188980603 40.18723539743544 13.29166666666666 0 0 0
308 0 1 0 12.349510786531848 41.48359782961077 12.374999999999995 0 0 0
309 0 1 0 12.349510786531848 44.07632269396145 8.70833333333333 0 0 0
310 0 1 0 10.104145188980603 45.37268512613678 9.624999999999996 0 0 0
311 0 1 0 12.349510786531848 44.07632269396145 13.29166666666666 0 0 0
312 0 1 0 10.104145188980603 45.37268512613678 12.374999999999995 0 0 0
313 0 1 0 1.1226827987756225 47.96540999048746 8.70833333333333 0 0 0
314 0 1 0 3.3680483963268673 49.26177242266279 9.624999999999996 0 0 0
315 0 1 0 1.1226827987756225 47.96540999048746 13.29166666666666 0 0 0
316 0 1 0 3.3680483963268673 49.26177242266279 12.374999999999995 0 0 0
317 0 1 0 3.3680483963268673 51.854497287013466 8.70833333333333 0 0 0
318 0 1 0 1.1226827987756225 53.1508597191888 9.624999999999996 0 0 0
319 0 1 0 3.3680483963268673 51.854497287013466 13.29166666666666 0 0 0
320 0 1 0 1.1226827987756225 53.1508597191888 12.374999999999995 0 0 0
321 0 1 0 5.613413993878113 47.96540999048746 8.70833333333333 0 0 0
322 0 1 0 7.858779591429357 49.26177242266279 9.624999999999996 0 0 0
323 0 1 0 5.613413993878113 47.96540999048746 13.29166666666666 0 0 0
324 0 1 0 7.858779591429357 49.26177242266279 12.374999999999995 0 0 0
325 0 1 0 7.858779591429357 51.854497287013466 8.70833333333333 0 0 0
326 0 1 0 5.613413993878113 53.1508597191888 9.624999999999996 0 0 0
327 0 1 0 7.858779591429357 51.854497287013466 13.29166666666666 0 0 0
328 0 1 0 5.613413993878113 53.1508597191888 12.374999999999995 0 0 0
329 0 1 0 10.104145188980603 47.96540999048746 8.70833333333333 0 0 0
330 0 1 0 12.349510786531848 49.26177242266279 9.624999999999996 0 0 0
331 0 1 0 10.104145188980603 47.96540999048746 13.29166666666666 0 0 0
332 0 1 0 12.349510786531848 49.26177242266279 12.374999999999995 0 0 0
333 0 1 0 12.349510786531848 51.854497287013466 8.70833333333333 0 0 0
334 0 1 0 10.104145188980603 53.1508597191888 9.624999999999996 0 0 0
335 0 1 0 12.349510786531848 51.854497287013466 13.29166666666666 0 0 0
336 0 1 0 10.104145188980603 53.1508597191888 12.374999999999995 0 0 0
337 0 1 0 1.1226827987756225 1.296362432175339 16.04166666666666 0 0 0
338 0 1 0 3.3680483963268673 2.5927248643506706 16.958333333333325 0 0 0
339 0 1 0 1.1226827987756225 1.296362432175339 20.624999999999993 0 0 0
340 0 1 0 3.3680483963268673 2.5927248643506706 19.708333333333325 0 0 0
341 0 1 0 3.3680483963268673 5.185449728701349 16.04166666666666 0 0 0
342 0 1 0 1.1226827987756225 6.4818121608766806 16.958333333333325 0 0 0
343 0 1 0 3.3680483963268673 5.185449728701349 20.624999999999993 0 0 0
344 0 1 0 1.1226827987756225 6.4818121608766806 19.708333333333325 0 0 0
345 0 1 0 5.613413993878113 1.296362432175339 16.04166666666666 0 0 0
346 0 1 0 7.858779591429357 2.5927248643506706 16.958333333333325 0 0 0
347 0 1 0 5.613413993878113 1.296362432175339 20.624999999999993 0 0 0
348 0 1 0 7.858779591429357 2.5927248643506706 19.708333333333325 0 0 0
349 0 1 0 7.858779591429357 5.185449728701349 16.04166666666666 0 0 0
350 0 1 0 5.613413993878113 6.4818121608766806 16.958333333333325 0 0 0
351 0 1 0 7.858779591429357 5.185449728701349 20.624999999999993 0 0 0
352 0 1 0 5.613413993878113 6.4818121608766806 19.708333333333325 0 0 0
353 0 1 0 10.104145188980603 1.296362432175339 16.04166666666666 0 0 0
354 0 1 0 12.349510786531848 2.5927248643506706 16.958333333333325 0 0 0
355 0 1 0 10.104145188980603 1.296362432175339 20.624999999999993 0 0 0
356 0 1 0 12.349510786531848 2.5927248643506706 19.708333333333325 0 0 0
357 0 1 0 12.349510786531848 5.185449728701349 16.04166666666666 0 0 0
358 0 1 0 10.104145188980603 6.4818121608766806 16.958333333333325 0 0 0
359 0 1 0 12.349510786531848 5.185449728701349 20.624999999999993 0 0 0
360 0 1 0 10.104145188980603 6.4818121608766806 19.708333333333325 0 0 0
361 0 1 0 1.1226827987756225 9.07453702522736 16.04166666666666 0 0 0
362 0 1 0 3.3680483963268673 10.370899457402691 16.958333333333325 0 0 0
363 0 1 0 1.1226827987756225 9.07453702522736 20.624999999999993 0 0 0
364 0 1 0 3.3680483963268673 10.370899457402691 19.708333333333325 0 0 0
365 0 1 0 3.3680483963268673 12.963624321753368 16.04166666666666 0 0 0
366 0 1 0 1.1226827987756225 14.2599867539287 16.958333333333325 0 0 0
367 0 1 0 3.3680483963268673 12.963624321753368 20.624999999999993 0 0 0
368 0 1 0 1.1226827987756225 14.2599867539287 19.708333333333325 0 0 0
369 0 1 0 5.613413993878113 9.07453702522736 16.04166666666666 0 0 0
370 0 1 0 7.858779591429357 10.370899457402691 16.958333333333325 0 0 0
371 0 1 0 5.613413993878113 9.07453702522736 20.624999999999993 0 0 0
372 0 1 0 7.858779591429357 10.370899457402691 19.708333333333325 0 0 0
373 0 1 0 7.858779591429357 12.963624321753368 16.04166666666666 0 0 0
374 0 1 0 5.613413993878113 14.2599867539287 16.958333333333325 0 0 0
375 0 1 0 7.858779591429357 12.963624321753368 20.624999999999993 0 0 0
376 0 1 0 5.613413993878113 14.2599867539287 19.708333333333325 0 0 0
377 0 1 0 10.104145188980603 9.07453702522736 16.04166666666666 0 0 0
378 0 1 0 12.349510786531848 10.370899457402691 16.958333333333325 0 0 0
379 0 1 0 10.104145188980603 9.07453702522736 20.624999999999993 0 0 0
380 0 1 0 12.349510786531848 10.370899457402691 19.708333333333325 0 0 0
381 0 1 0 12.349510786531848 12.963624321753368 16.04166666666666 0 0 0
382 0 1 0 10.104145188980603 14.2599867539287 16.958333333333325 0 0 0
383 0 1 0 12.349510786531848 12.963624321753368 20.624999999999993 0 0 0
384 0 1 0 10.104145188980603 14.2599867539287 19.708333333333325 0 0 0
385 0 1 0 1.1226827987756225 16.85271161827938 16.04166666666666 0 0 0
386 0 1 0 3.3680483963268673 18.14907405045471 16.958333333333325 0 0 0
387 0 1 0 1.1226827987756225 16.85271161827938 20.624999999999993 0 0 0
388 0 1 0 3.3680483963268673 18.14907405045471 19.708333333333325 0 0 0
389 0 1 0 3.3680483963268673 20.74179891480539 16.04166666666666 0 0 0
390 0 1 0 1.1226827987756225 22.038161346980722 16.958333333333325 0 0 0
391 0 1 0 3.3680483963268673 20.74179891480539 20.624999999999993 0 0 0
392 0 1 0 1.1226827987756225 22.038161346980722 19.708333333333325 0 0 0
393 0 1 0 5.613413993878113 16.85271161827938 16.04166666666666 0 0 0
394 0 1 0 7.858779591429357 18.14907405045471 16.958333333333325 0 0 0
395 0 1 0 5.613413993878113 16.85271161827938 20.624999999999993 0 0 0
396 0 1 0 7.858779591429357 18.14907405045471 19.708333333333325 0 0 0
397 0 1 0 7.858779591429357 20.74179891480539 16.04166666666666 0 0 0
398 0 1 0 5.613413993878113 22.038161346980722 16.958333333333325 0 0 0
399 0 1 0 7.858779591429357 20.74179891480539 20.624999999999993 0 0 0
400 0 1 0 5.613413993878113 22.038161346980722 19.708333333333325 0 0 0
401 0 1 0 10.104145188980603 16.85271161827938 16.04166666666666 0 0 0
402 0 1 0 12.349510786531848 18.14907405045471 16.958333333333325 0 0 0
403 0 1 0 10.104145188980603 16.85271161827938 20.624999999999993 0 0 0
404 0 1 0 12.349510786531848 18.14907405045471 19.708333333333325 0 0 0
405 0 1 0 12.349510786531848 20.74179891480539 16.04166666666666 0 0 0
406 0 1 0 10.104145188980603 22.038161346980722 16.958333333333325 0 0 0
407 0 1 0 12.349510786531848 20.74179891480539 20.624999999999993 0 0 0
408 0 1 0 10.104145188980603 22.038161346980722 19.708333333333325 0 0 0
409 0 1 0 1.1226827987756225 24.630886211331397 16.04166666666666 0 0 0
410 0 1 0 3.3680483963268673 25.92724864350673 16.958333333333325 0 0 0
411 0 1 0 1.1226827987756225 24.630886211331397 20.624999999999993 0 0 0
412 0 1 0 3.3680483963268673 25.92724864350673 19.708333333333325 0 0 0
413 0 1 0 3.3680483963268673 28.519973507857408 16.04166666666666 0 0 0
414 0 1 0 1.1226827987756225 29.81633594003274 16.958333333333325 0 0 0
415 0 1 0 3.3680483963268673 28.519973507857408 20.624999999999993 0 0 0
416 0 1 0 1.1226827987756225 29.81633594003274 19.708333333333325 0 0 0
417 0 1 0 5.613413993878113 24.630886211331397 16.04166666666666 0 0 0
418 0 1 0 7.858779591429357 25.92724864350673 16.958333333333325 0 0 0
419 0 1 0 5.613413993878113 24.630886211331397 20.624999999999993 0 0 0